LAMMPS data file via write_data, version 19 Sep 2019, timestep = 10000000

1152 atoms
2 atom types
768 bonds
1 bond types
384 angles
1 angle types

0.0000000000000000e+00 2.2199541000000000e+01 xlo xhi
0.0000000000000000e+00 2.2199541000000000e+01 ylo yhi
0.0000000000000000e+00 2.2199541000000000e+01 zlo zhi

Masses

1 1.008
2 15.9994

Pair Coeffs # lj/cut/tip4p/long

1 0 0
2 0.155 3.1536

Bond Coeffs # harmonic

1 450 0.9572

Angle Coeffs # harmonic

1 55 104.52

Atoms # full

758 3 1 5.2000000000000002e-01 2.9642223619254797e+00 3.8498446543597115e-01 1.5788977536871780e+00 -7 13 10
1054 4 2 -1.0400000000000000e+00 2.7874617727759343e+00 1.8303429838896752e+00 5.1662803589393587e+00 -2 11 -4
39 1 1 5.2000000000000002e-01 1.8486660521923308e+00 5.1590799574124251e+00 1.3596252145696135e+00 8 15 7
931 4 2 -1.0400000000000000e+00 1.0483989570296119e+00 4.4671572634635064e+00 4.3983802106941265e+00 7 21 1
933 4 1 5.2000000000000002e-01 3.1376069575257770e-01 4.2291345060143755e+00 3.8327963873359332e+00 7 21 1
226 1 2 -1.0400000000000000e+00 5.0513679945744370e+00 2.2583579318554636e+00 3.6366862046146560e+00 -9 -2 -9
227 1 1 5.2000000000000002e-01 4.9861923546047473e+00 1.9203750669367470e+00 4.5298783828656495e+00 -9 -2 -9
779 3 1 5.2000000000000002e-01 3.3360679011359013e+00 4.8329309271383289e+00 5.1933989804974567e-01 -6 0 4
820 3 2 -1.0400000000000000e+00 4.9072922849699827e+00 1.7257265121481506e+00 1.4669618905739010e-01 7 -9 -14
37 1 2 -1.0400000000000000e+00 9.2418686801200467e-01 5.0892853193052190e+00 1.5977933239893367e+00 8 15 7
1105 4 2 -1.0400000000000000e+00 3.4521434786164584e+00 4.9897597672664178e+00 3.5859905452155578e+00 12 -3 -4
721 3 2 -1.0400000000000000e+00 2.1703915251113726e-01 8.0430310796277149e-01 3.8876346305176079e-01 -12 6 -12
723 3 1 5.2000000000000002e-01 8.0012104665062900e-01 3.8148229563231856e-01 1.0192402860293612e+00 -12 6 -12
425 2 1 5.2000000000000002e-01 5.3695786371271321e+00 4.7463088989638695e+00 2.3998997075458859e+00 -10 -5 0
1107 4 1 5.2000000000000002e-01 2.5900827544772684e+00 4.8571197505440447e+00 3.9803731134821496e+00 12 -3 -4
1094 4 1 5.2000000000000002e-01 5.5029440537815351e+00 2.0504567355909811e-01 3.8917659156106907e+00 4 -9 4
666 3 1 5.2000000000000002e-01 3.2400271537670378e+00 2.0344156011605148e+00 2.1560086030052794e+00 5 -21 4
665 3 1 5.2000000000000002e-01 2.7463091023267991e+00 2.3590211858172925e+00 7.6216918996135052e-01 5 -21 4
664 3 2 -1.0400000000000000e+00 2.5656663873030170e+00 2.5260503583761573e+00 1.6872138108817898e+00 5 -21 4
932 4 1 5.2000000000000002e-01 7.3938626024144127e-01 4.2798016865963584e+00 5.2847539471049645e+00 7 21 1
1055 4 1 5.2000000000000002e-01 3.6054669743111418e+00 1.4395384979511896e+00 5.4734794267676259e+00 -2 11 -4
228 1 1 5.2000000000000002e-01 4.8855106414527567e+00 1.4978112514216086e+00 3.0796107635597831e+00 -9 -2 -9
722 3 1 5.2000000000000002e-01 2.7088271858920682e-01 1.7364294418971071e+00 5.9971631003452419e-01 -12 6 -12
822 3 1 5.2000000000000002e-01 4.3644886129069880e+00 2.5070231321743885e+00 4.0971734701177098e-02 7 -9 -14
918 4 1 5.2000000000000002e-01 7.3285454986869798e+00 3.9059229618637401e+00 1.6609613358288042e+00 4 2 -8
851 3 1 5.2000000000000002e-01 8.5057823491557354e+00 4.4542831630859556e+00 4.4761216752531388e+00 10 -8 15
122 1 1 5.2000000000000002e-01 1.0193573954831505e+01 5.2674557416112409e+00 1.3326015897319683e+00 11 -12 15
424 2 2 -1.0400000000000000e+00 5.7900973799379161e+00 5.3977642672998387e+00 1.8386417739130645e+00 -10 -5 0
917 4 1 5.2000000000000002e-01 8.2869648504885962e+00 2.7550899360045245e+00 1.4395191624243699e+00 4 2 -8
916 4 2 -1.0400000000000000e+00 7.4012600372809274e+00 2.9549682932628905e+00 1.7425703253023810e+00 4 2 -8
121 1 2 -1.0400000000000000e+00 1.0765774384779119e+01 4.6266312430838648e+00 1.7547783329194100e+00 11 -12 15
1010 4 1 5.2000000000000002e-01 1.0495478484119939e+01 9.1448651713453810e-01 3.5572176025003288e-01 -5 -14 0
148 1 2 -1.0400000000000000e+00 8.8002249743516145e+00 1.1520162375064875e+00 4.5559879618130914e+00 0 23 -5
1011 4 1 5.2000000000000002e-01 1.0612845312778026e+01 2.4237661841458307e+00 3.4133920971610598e-01 -5 -14 0
372 2 1 5.2000000000000002e-01 1.0993326088550045e+01 1.0945667219936033e+00 2.3910080982758064e+00 -19 2 -1
852 3 1 5.2000000000000002e-01 7.3815921685104193e+00 4.4458847843398015e+00 5.4901135851118790e+00 10 -8 15
850 3 2 -1.0400000000000000e+00 7.5531969979623046e+00 4.3957325899695014e+00 4.5497049052888059e+00 10 -8 15
150 1 1 5.2000000000000002e-01 8.6044419229430975e+00 1.9529169980865013e+00 4.0696934917562659e+00 0 23 -5
149 1 1 5.2000000000000002e-01 8.3949850127519099e+00 1.2863440525764238e+00 5.4127168530686181e+00 0 23 -5
821 3 1 5.2000000000000002e-01 5.8030087592903419e+00 2.0601969055690077e+00 1.9234036088882078e-01 7 -9 -14
778 3 2 -1.0400000000000000e+00 3.7299935431796052e+00 5.5776900537545950e+00 6.5037457024913897e-02 -6 0 4
187 1 2 -1.0400000000000000e+00 4.6050292839775873e+00 9.3105894216403016e+00 4.9373555139457190e+00 1 16 -2
426 2 1 5.2000000000000002e-01 5.1244455253263235e+00 5.6189190161817120e+00 1.1873018686708046e+00 -10 -5 0
691 3 2 -1.0400000000000000e+00 1.3816920559554344e+00 1.0908591831314890e+01 4.3125327840813696e+00 2 1 0
692 3 1 5.2000000000000002e-01 2.2775214222371929e+00 1.0595607146715682e+01 4.4381135653732118e+00 2 1 0
1026 4 1 5.2000000000000002e-01 4.5303795022178956e+00 7.9810232015291191e+00 2.0345164338135846e+00 15 2 3
317 2 1 5.2000000000000002e-01 9.4121174796431861e-01 8.9300436296839543e+00 2.5723437424009612e+00 -8 -1 2
1024 4 2 -1.0400000000000000e+00 3.5820794548845538e+00 8.1076955543473783e+00 2.0649770084562911e+00 15 2 3
189 1 1 5.2000000000000002e-01 3.6940764720874122e+00 9.2346969745912393e+00 5.2213422009266584e+00 1 16 -2
1025 4 1 5.2000000000000002e-01 3.3438201929206031e+00 7.9193581670632014e+00 2.9727348186148852e+00 15 2 3
188 1 1 5.2000000000000002e-01 4.6594797049705061e+00 8.7602949006400426e+00 4.1560431262420252e+00 1 16 -2
1106 4 1 5.2000000000000002e-01 3.9017483175882495e+00 5.5844813974290206e+00 4.1863771580093152e+00 12 -3 -4
1122 4 1 5.2000000000000002e-01 2.1666965275799999e-01 9.0554081396141370e+00 1.5392401406090478e-01 -15 1 5
38 1 1 5.2000000000000002e-01 6.7785419650201806e-01 5.9746346763982920e+00 1.8655835004137302e+00 8 15 7
316 2 2 -1.0400000000000000e+00 5.2587108139412218e-02 8.8645322039950756e+00 2.2226412707784009e+00 -8 -1 2
351 2 1 5.2000000000000002e-01 2.9778706960345951e+00 1.0333869136160722e+01 4.5103524597929873e-01 -12 -4 -10
523 2 2 -1.0400000000000000e+00 6.1463559002773600e+00 1.0111746179162459e+01 2.1755818455943094e+00 -8 -5 -11
77 1 1 5.2000000000000002e-01 8.4776575682235897e+00 9.2349414434601211e+00 1.8260555202678219e+00 -5 -14 2
40 1 2 -1.0400000000000000e+00 8.4874642334140606e+00 6.3586141352825951e+00 4.5457165556006490e-01 12 -10 9
74 1 1 5.2000000000000002e-01 1.0842200200801697e+01 9.9092761138803080e+00 3.9410493718477126e+00 -11 -8 19
736 3 2 -1.0400000000000000e+00 7.8481286388492242e+00 1.0839357576354303e+01 4.9187284676151775e+00 18 7 -3
525 2 1 5.2000000000000002e-01 6.3673215362482347e+00 9.6572229267911940e+00 1.3626689698994736e+00 -8 -5 -11
73 1 2 -1.0400000000000000e+00 1.0474354016354400e+01 9.3529173662510559e+00 4.6276402881757130e+00 -11 -8 19
524 2 1 5.2000000000000002e-01 5.7307571589946180e+00 9.4425507386554965e+00 2.7193660476692476e+00 -8 -5 -11
86 1 1 5.2000000000000002e-01 7.2993218871006835e+00 6.3220097634431243e+00 3.6255489587997305e+00 7 5 -21
87 1 1 5.2000000000000002e-01 8.5917663124600310e+00 7.0755241708635204e+00 3.3937335882554760e+00 7 5 -21
85 1 2 -1.0400000000000000e+00 7.7145151682199629e+00 7.1732931604423316e+00 3.7640239419229546e+00 7 5 -21
593 3 1 5.2000000000000002e-01 1.0868091499749307e+01 1.0430365251987809e+01 4.9890137532188844e-01 8 3 -5
78 1 1 5.2000000000000002e-01 8.3808567639869640e+00 1.0741265270669230e+01 1.9424429874456768e+00 -5 -14 2
738 3 1 5.2000000000000002e-01 7.2411446059629290e+00 1.0634152861651117e+01 4.2076003724352304e+00 18 7 -3
999 4 1 5.2000000000000002e-01 5.5779836424867044e+00 7.6350328537380516e+00 3.9061604041521369e-01 -11 0 12
75 1 1 5.2000000000000002e-01 9.6858222121836288e+00 8.9776576736692864e+00 4.2356359454580961e+00 -11 -8 19
76 1 2 -1.0400000000000000e+00 8.8735573967649959e+00 1.0045823596127654e+01 1.5067107806940672e+00 -5 -14 2
496 2 2 -1.0400000000000000e+00 1.4120712106561146e+00 6.7597470470077553e-02 7.4629440709586170e+00 -10 5 18
1102 4 2 -1.0400000000000000e+00 5.4072209191765594e+00 5.4958977545516960e+00 8.8655814071101613e+00 6 4 -9
1143 4 1 5.2000000000000002e-01 3.6647212877044346e+00 4.9472895190163424e+00 6.1949911357033418e+00 -8 12 -3
1132 4 2 -1.0400000000000000e+00 3.9562763016045031e+00 7.7284475718467083e-01 9.2777508781327640e+00 21 -6 -3
1104 4 1 5.2000000000000002e-01 5.2024871089848732e+00 4.5969587046433054e+00 8.6082099125519917e+00 6 4 -9
221 1 1 5.2000000000000002e-01 2.0757813636224736e+00 1.2775245772412696e+00 1.0195460981167146e+01 -3 7 11
220 1 2 -1.0400000000000000e+00 1.2780646811410912e+00 7.4873483843461963e-01 1.0213318111061348e+01 -3 7 11
497 2 1 5.2000000000000002e-01 2.1067333230962011e+00 6.2245733594611607e-02 8.1214652958052103e+00 -10 5 18
329 2 1 5.2000000000000002e-01 2.8063295465632159e+00 4.7458404254261755e+00 1.0893347383003700e+01 10 13 2
1056 4 1 5.2000000000000002e-01 2.6184205862019083e+00 2.5460214356609709e+00 5.7790793838635777e+00 -2 11 -4
309 2 1 5.2000000000000002e-01 1.0521380319071620e+00 3.4863578411474223e+00 8.2749116476794615e+00 4 4 6
307 2 2 -1.0400000000000000e+00 1.8311262020229966e+00 3.0545364363338119e+00 8.6255562088640048e+00 4 4 6
308 2 1 5.2000000000000002e-01 2.0474758594279852e+00 3.5528186409574047e+00 9.4136879072821351e+00 4 4 6
1141 4 2 -1.0400000000000000e+00 4.4909537407814204e+00 4.4651104202582212e+00 6.2277943512014931e+00 -8 12 -3
1142 4 1 5.2000000000000002e-01 5.0534114468102720e+00 4.9911681380014725e+00 6.7962527565784381e+00 -8 12 -3
1133 4 1 5.2000000000000002e-01 3.2653564227235532e+00 1.2294675621766318e+00 8.7976816360555734e+00 21 -6 -3
788 3 1 5.2000000000000002e-01 5.3844709246034297e+00 1.9564309898687284e+00 7.6771237944625357e+00 -11 -5 10
789 3 1 5.2000000000000002e-01 5.3561190508162655e+00 2.5994471325073625e+00 6.3068466854179999e+00 -11 -5 10
266 1 1 5.2000000000000002e-01 2.5342841490545482e+00 5.2188203093292218e+00 8.1347178118415133e+00 -3 3 -7
436 2 2 -1.0400000000000000e+00 1.0596327291448075e+01 3.4779243544599847e+00 5.6508357966292646e+00 -8 -12 15
958 4 2 -1.0400000000000000e+00 1.0468074661519822e+01 4.8728626719915633e+00 1.0969354249485688e+01 -13 -2 24
481 2 2 -1.0400000000000000e+00 9.4771221375844856e+00 5.9851593219340105e-01 7.8411618590507679e+00 4 1 1
278 1 1 5.2000000000000002e-01 7.0681653113254344e+00 3.0279463740188954e+00 9.9956128494611978e+00 -1 -10 -3
959 4 1 5.2000000000000002e-01 9.6546845581490004e+00 4.9677014623608819e+00 1.0473737265599580e+01 -13 -2 24
437 2 1 5.2000000000000002e-01 1.0978403123968265e+01 4.3480278387650930e+00 5.7656959022629213e+00 -8 -12 15
1136 4 1 5.2000000000000002e-01 1.0874941108815207e+01 2.3705159302348573e+00 8.2255477300711153e+00 9 -7 2
483 2 1 5.2000000000000002e-01 9.0133008838043427e+00 1.8243094765379256e-01 7.1144896080130700e+00 4 1 1
438 2 1 5.2000000000000002e-01 9.7522514505646303e+00 3.5253053281444013e+00 6.0997497512570273e+00 -8 -12 15
279 1 1 5.2000000000000002e-01 6.9189477949433336e+00 1.6199633476902116e+00 9.4596468507435372e+00 -1 -10 -3
354 2 1 5.2000000000000002e-01 8.4297795631313193e+00 3.6362892351606289e+00 8.6799661639886629e+00 11 12 3
352 2 2 -1.0400000000000000e+00 8.0498150656069711e+00 3.3341511073582191e+00 7.8549952371759133e+00 11 12 3
495 2 1 5.2000000000000002e-01 9.4245461029825499e+00 1.3001562459463518e+00 1.0638721083120073e+01 12 -3 -5
353 2 1 5.2000000000000002e-01 7.3283512336295349e+00 2.7627314955976234e+00 8.1180985332356297e+00 11 12 3
787 3 2 -1.0400000000000000e+00 5.9052128152075101e+00 2.0659998238788138e+00 6.8814577422760008e+00 -11 -5 10
277 1 2 -1.0400000000000000e+00 6.7015496981557412e+00 2.1705743041523342e+00 1.0211847528047457e+01 -1 -10 -3
658 3 2 -1.0400000000000000e+00 5.4000481146227610e+00 9.4719544196157379e+00 7.9300255897290368e+00 4 -2 -17
660 3 1 5.2000000000000002e-01 5.1408621979872215e+00 1.0367602647496696e+01 8.1466462194132099e+00 4 -2 -17
1103 4 1 5.2000000000000002e-01 4.6494727588774216e+00 5.7772193481623804e+00 9.3783485006843144e+00 6 4 -9
411 2 1 5.2000000000000002e-01 1.2973341002494582e-01 7.3952302738453497e+00 8.4853971300676694e+00 -10 -5 1
339 2 1 5.2000000000000002e-01 1.3646483063316324e+00 7.4549283435946982e+00 1.0603581886608016e+01 3 -18 3
520 2 2 -1.0400000000000000e+00 1.6468065557843550e+00 7.8535482338993097e+00 5.5586732938075087e+00 -5 -2 -18
298 2 2 -1.0400000000000000e+00 2.0117934674663407e+00 8.9563406392349396e+00 8.0375094443891992e+00 14 -6 22
300 2 1 5.2000000000000002e-01 2.1005846312411931e+00 9.3510366127704430e+00 8.9050158100838583e+00 14 -6 22
521 2 1 5.2000000000000002e-01 1.4966697806384004e+00 6.9123379094315469e+00 5.6471613487319665e+00 -5 -2 -18
522 2 1 5.2000000000000002e-01 2.2711986870279115e+00 8.0633174819820397e+00 6.2532126811871054e+00 -5 -2 -18
587 3 1 5.2000000000000002e-01 2.5427060143799118e+00 1.0536021318109627e+01 1.0324753986217983e+01 16 11 -8
328 2 2 -1.0400000000000000e+00 2.4223587274647063e+00 5.5509020781732268e+00 1.0545951854801185e+01 10 13 2
299 2 1 5.2000000000000002e-01 1.0705038367966333e+00 8.8183639344330729e+00 7.9318293256144061e+00 14 -6 22
267 1 1 5.2000000000000002e-01 1.2587918325834679e+00 6.0291457660857732e+00 8.2271769232577139e+00 -3 3 -7
265 1 2 -1.0400000000000000e+00 1.9769339338915515e+00 5.8131328008081624e+00 7.6322932444086256e+00 -3 3 -7
337 2 2 -1.0400000000000000e+00 4.4477509242440583e-01 7.5521884998501516e+00 1.0849778486793355e+01 3 -18 3
338 2 1 5.2000000000000002e-01 2.5692556605490313e-01 8.4809154561786944e+00 1.0714052513855004e+01 3 -18 3
746 3 1 5.2000000000000002e-01 2.6016603467587662e-01 1.0948763298986714e+01 8.6355415942682026e+00 10 -3 1
485 2 1 5.2000000000000002e-01 1.0602168214882926e+01 7.4299178132537325e+00 9.2365603971493169e+00 -2 -21 8
184 1 2 -1.0400000000000000e+00 9.0049720367186428e+00 1.0061485069440453e+01 7.6258164613309987e+00 8 15 -12
1083 4 1 5.2000000000000002e-01 7.6206611359154248e+00 6.3406563551745796e+00 9.4918926606415397e+00 -7 0 10
1082 4 1 5.2000000000000002e-01 8.4214434384096517e+00 6.5618864060072548e+00 8.2262881159982300e+00 -7 0 10
704 3 1 5.2000000000000002e-01 6.1535073513660610e+00 9.8410634595242321e+00 1.0104181077718668e+01 3 -1 7
195 1 1 5.2000000000000002e-01 1.0399029974144540e+01 7.0987029904100902e+00 6.0489489778432111e+00 3 -20 9
1081 4 2 -1.0400000000000000e+00 8.4811549110951869e+00 6.1830428881436337e+00 9.1033136992951711e+00 -7 0 10
185 1 1 5.2000000000000002e-01 8.3805547420479574e+00 1.0737362551283583e+01 7.3621226674051270e+00 8 15 -12
486 2 1 5.2000000000000002e-01 1.0383494370073153e+01 8.5691790646887203e+00 8.2638463759871641e+00 -2 -21 8
193 1 2 -1.0400000000000000e+00 1.0118452680149945e+01 6.6048253347527801e+00 6.8193997640928199e+00 3 -20 9
703 3 2 -1.0400000000000000e+00 6.4618867805506692e+00 9.5480860771407681e+00 1.0961696835731324e+01 3 -1 7
659 3 1 5.2000000000000002e-01 5.9183825815047433e+00 9.5589347586309827e+00 7.1300218044186883e+00 4 -2 -17
194 1 1 5.2000000000000002e-01 1.0355246545955524e+01 7.1619108392382369e+00 7.5608974551701733e+00 3 -20 9
989 4 1 5.2000000000000002e-01 5.8389274752654474e+00 8.0151993324847020e+00 6.1814251749032563e+00 0 14 6
988 4 2 -1.0400000000000000e+00 6.6609760457999316e+00 7.6319424248013235e+00 6.4874147443863484e+00 0 14 6
990 4 1 5.2000000000000002e-01 6.9475395484384750e+00 8.2111840979829864e+00 7.1936174988435937e+00 0 14 6
186 1 1 5.2000000000000002e-01 9.0449719824279811e+00 1.0130708299433200e+01 8.5796796154515320e+00 8 15 -12
484 2 2 -1.0400000000000000e+00 1.1000832354037994e+01 8.2392913722185259e+00 8.9168018586767808e+00 -2 -21 8
585 3 1 5.2000000000000002e-01 5.8337416561252988e+00 7.3469918688447500e+00 1.0894164169525972e+01 -4 -1 1
218 1 1 5.2000000000000002e-01 5.4961352491726139e+00 2.9923962775904593e+00 1.2184763625363557e+01 0 11 2
217 1 2 -1.0400000000000000e+00 4.8447385928690290e+00 3.6698831290787011e+00 1.2003237750489260e+01 0 11 2
219 1 1 5.2000000000000002e-01 4.8033623753346149e+00 4.1850441602961626e+00 1.2808931984414665e+01 0 11 2
1123 4 2 -1.0400000000000000e+00 1.9044438328290680e+00 1.2865105743326979e+00 1.4907638144692866e+01 -2 -11 -4
606 3 1 5.2000000000000002e-01 2.7650108199123786e+00 8.3580087096889499e-01 1.1326993032962058e+01 -6 31 4
1124 4 1 5.2000000000000002e-01 2.2410923608771900e+00 1.2542963265129319e+00 1.4012117805196967e+01 -2 -11 -4
323 2 1 5.2000000000000002e-01 2.2668261069215170e+00 4.0142392100356368e+00 1.2735975716547916e+01 -8 3 -1
605 3 1 5.2000000000000002e-01 4.0838695374692717e+00 1.2618733227913708e+00 1.1936131624918259e+01 -6 31 4
517 2 2 -1.0400000000000000e+00 5.4201302114501919e+00 3.2476452547658292e+00 1.5402851327021066e+01 15 1 -3
518 2 1 5.2000000000000002e-01 5.2021586592514346e+00 3.7764218860641479e+00 1.6170432273362611e+01 15 1 -3
322 2 2 -1.0400000000000000e+00 1.4312967224496784e+00 3.5992412930944822e+00 1.2521732468474019e+01 -8 3 -1
539 2 1 5.2000000000000002e-01 1.7463575319178783e+00 5.1295235669840311e+00 1.4421844361162522e+01 -1 4 -7
324 2 1 5.2000000000000002e-01 8.3449067062368010e-01 4.3301783418287361e+00 1.2361137644435233e+01 -8 3 -1
1125 4 1 5.2000000000000002e-01 9.6980850682917197e-01 1.0996027625803853e+00 1.4819546380837982e+01 -2 -11 -4
645 3 1 5.2000000000000002e-01 2.2171830524175582e+00 3.4467046969123505e+00 1.6048924144168087e+01 -6 6 -14
604 3 2 -1.0400000000000000e+00 3.1844318687407958e+00 1.0282026499971504e+00 1.2165639312348432e+01 -6 31 4
804 3 1 5.2000000000000002e-01 2.6493212707802455e-01 3.8186482664099812e+00 1.5076189229245205e+01 -12 3 -4
1127 4 1 5.2000000000000002e-01 1.0662324438552339e+01 7.1335063726986569e-01 1.4118803171775399e+01 11 11 13
626 3 1 5.2000000000000002e-01 8.7115927204493495e+00 2.3076516700235481e+00 1.6532687329595245e+01 10 -3 -3
1128 4 1 5.2000000000000002e-01 9.7123336371782774e+00 6.0407435947490018e-01 1.2945142867577275e+01 11 11 13
845 3 1 5.2000000000000002e-01 7.3749013882378840e+00 9.8448297573431631e-01 1.2958073376758051e+01 0 10 6
625 3 2 -1.0400000000000000e+00 8.1785907315562145e+00 2.1845619600181849e+00 1.5747184382881738e+01 10 -3 -3
513 2 1 5.2000000000000002e-01 8.6847191857306854e+00 3.0856217808540398e+00 1.3315625721588461e+01 -2 -2 -2
512 2 1 5.2000000000000002e-01 8.7558311736767376e+00 4.5766255326717626e+00 1.3063080202960721e+01 -2 -2 -2
511 2 2 -1.0400000000000000e+00 8.2830613015536318e+00 3.7863451572130473e+00 1.2801918543432317e+01 -2 -2 -2
846 3 1 5.2000000000000002e-01 6.5973255115071412e+00 1.6523252260100034e+00 1.4072198534788287e+01 0 10 6
844 3 2 -1.0400000000000000e+00 6.5224182243169739e+00 9.8159576863591669e-01 1.3393405500306541e+01 0 10 6
627 3 1 5.2000000000000002e-01 8.1336972727828414e+00 1.2351362875234659e+00 1.5633967943606791e+01 10 -3 -3
494 2 1 5.2000000000000002e-01 9.5047570093210734e+00 2.0147970526717400e+00 1.1970933589324943e+01 12 -3 -5
1129 4 2 -1.0400000000000000e+00 9.8924762338557422e+00 4.9242946308297650e+00 1.6149166359499088e+01 8 -8 -3
1130 4 1 5.2000000000000002e-01 9.8937736281849133e+00 4.0016663740183658e+00 1.5894133800921740e+01 8 -8 -3
1126 4 2 -1.0400000000000000e+00 9.8106899335607043e+00 3.5771485319606389e-01 1.3864869213690069e+01 11 11 13
519 2 1 5.2000000000000002e-01 5.8090461126515756e+00 2.4505950135653229e+00 1.5763033433723169e+01 15 1 -3
493 2 2 -1.0400000000000000e+00 9.9348047815542078e+00 1.9529680356986638e+00 1.1118012843515231e+01 12 -3 -5
785 3 1 5.2000000000000002e-01 4.1737391274291085e+00 6.4563529481137376e+00 1.3486866805999385e+01 -6 -2 -2
216 1 1 5.2000000000000002e-01 3.8875772162268816e+00 9.0073966235324967e+00 1.2476108607654927e+01 -31 -2 -8
542 2 1 5.2000000000000002e-01 4.7684826219300387e+00 1.1086888234358696e+01 1.5337928068326780e+01 -3 -7 -9
612 3 1 5.2000000000000002e-01 3.9105924339407894e+00 7.5544640248740063e+00 1.6403078724768907e+01 2 -9 -10
538 2 2 -1.0400000000000000e+00 1.3573929149780257e+00 5.9935537123143394e+00 1.4286159633945717e+01 -1 4 -7
540 2 1 5.2000000000000002e-01 1.9164405659852670e+00 6.5893789516806089e+00 1.4784890758759252e+01 -1 4 -7
385 2 2 -1.0400000000000000e+00 2.1196476382237781e-01 8.9502214938380629e+00 1.3579939623670127e+01 -20 -1 5
784 3 2 -1.0400000000000000e+00 4.5293724753528615e+00 5.8620272856889590e+00 1.4147579938286382e+01 -6 -2 -2
166 1 2 -1.0400000000000000e+00 1.5709268536845098e+00 1.0155891130768547e+01 1.5661717996390843e+01 -1 -6 7
330 2 1 5.2000000000000002e-01 2.3406613509808749e+00 6.1256887767685795e+00 1.1307002531128983e+01 10 13 2
786 3 1 5.2000000000000002e-01 4.1558992872207172e+00 6.1700346584990724e+00 1.4973347763926338e+01 -6 -2 -2
215 1 1 5.2000000000000002e-01 4.0887071856204091e+00 7.5070655148492973e+00 1.2454241528805959e+01 -31 -2 -8
167 1 1 5.2000000000000002e-01 1.0250049066649136e+00 1.0304520824845698e+01 1.6433814299246091e+01 -1 -6 7
387 2 1 5.2000000000000002e-01 6.7908758452374485e-01 8.1674941359901858e+00 1.3287727240007325e+01 -20 -1 5
168 1 1 5.2000000000000002e-01 2.2857875797159029e+00 1.0786559770775042e+01 1.5748256053633904e+01 -1 -6 7
214 1 2 -1.0400000000000000e+00 3.5664459273164093e+00 8.2065797469477531e+00 1.2061606201415383e+01 -31 -2 -8
455 2 1 5.2000000000000002e-01 1.6464688113413324e+00 1.0592546086466379e+01 1.3208031644816147e+01 24 12 3
541 2 2 -1.0400000000000000e+00 5.1850786470166161e+00 1.0809104848340757e+01 1.6153720038363446e+01 -3 -7 -9
543 2 1 5.2000000000000002e-01 4.5004565939745653e+00 1.0331681594144177e+01 1.6622350597977885e+01 -3 -7 -9
239 1 1 5.2000000000000002e-01 8.8720392545130498e+00 7.8536941829995648e+00 1.1178600124734555e+01 6 1 18
705 3 1 5.2000000000000002e-01 5.7810383392297986e+00 9.8323486217689773e+00 1.1571531184124717e+01 3 -1 7
9 1 1 5.2000000000000002e-01 9.9215598736322548e+00 7.4257990908934408e+00 1.3772971247213636e+01 -2 0 -3
463 2 2 -1.0400000000000000e+00 8.7034387936989468e+00 1.0964925346681179e+01 1.2571658797327716e+01 -7 -7 -4
464 2 1 5.2000000000000002e-01 9.1309156381091459e+00 1.0593342731187882e+01 1.3343301494324230e+01 -7 -7 -4
882 4 1 5.2000000000000002e-01 9.3474957462536992e+00 9.8977454112026901e+00 1.4977477032046213e+01 -7 -4 15
240 1 1 5.2000000000000002e-01 9.3966365906448210e+00 9.1911366635375096e+00 1.1656070409099099e+01 6 1 18
866 4 1 5.2000000000000002e-01 6.5960979630459295e+00 8.3993941567205610e+00 1.4956168294194628e+01 -14 -5 -2
881 4 1 5.2000000000000002e-01 8.6749934353020279e+00 1.1077119783356656e+01 1.5647397106299916e+01 -7 -4 15
238 1 2 -1.0400000000000000e+00 9.6284274024991454e+00 8.2642643884774110e+00 1.1597590091893954e+01 6 1 18
7 1 2 -1.0400000000000000e+00 9.6404867580535445e+00 6.5126548378366769e+00 1.3713832529855930e+01 -2 0 -3
865 4 2 -1.0400000000000000e+00 6.2223014140491379e+00 8.6163735853424335e+00 1.4102097966109664e+01 -14 -5 -2
867 4 1 5.2000000000000002e-01 6.6841014173575504e+00 8.0472302180421682e+00 1.3486416224512174e+01 -14 -5 -2
397 2 2 -1.0400000000000000e+00 6.3481476664666134e+00 6.6661639761859446e+00 1.6646960419248039e+01 7 -3 -5
8 1 1 5.2000000000000002e-01 1.0123991901062942e+01 6.1606576237987820e+00 1.2966432596935954e+01 -2 0 -3
583 3 2 -1.0400000000000000e+00 5.9159964346451934e+00 6.5205139604756468e+00 1.1369996357777815e+01 -4 -1 1
880 4 2 -1.0400000000000000e+00 9.4385492592924614e+00 1.0503576621801930e+01 1.5712965824395425e+01 -7 -4 15
584 3 1 5.2000000000000002e-01 6.7417888447266785e+00 6.5996825141048117e+00 1.1847529628455652e+01 -4 -1 1
363 2 1 5.2000000000000002e-01 1.0632047936951581e+01 9.8322287061882587e+00 1.4353928880921547e+01 7 -2 5
961 4 2 -1.0400000000000000e+00 2.8451042378126457e+00 7.6644986927286940e-01 1.8349301206035094e+01 26 15 -10
596 3 1 5.2000000000000002e-01 1.2900548550658009e+00 2.4351413772528492e+00 2.0857937035015226e+01 13 -7 -9
643 3 2 -1.0400000000000000e+00 2.7892224103622678e+00 3.6834798359960410e+00 1.6778964086181080e+01 -6 6 -14
810 3 1 5.2000000000000002e-01 5.7159067751015230e-02 3.7368450432569724e+00 1.8011796980188123e+01 0 4 -13
963 4 1 5.2000000000000002e-01 2.2283810619975704e+00 1.0903590779170684e+00 1.9005797865306612e+01 26 15 -10
595 3 2 -1.0400000000000000e+00 2.0447638463502775e+00 2.8639997706404912e+00 2.0454541744942958e+01 13 -7 -9
780 3 1 5.2000000000000002e-01 4.4607575793018537e+00 5.2007089290244686e+00 2.1774568155716690e+01 -6 0 3
809 3 1 5.2000000000000002e-01 1.6096567754384511e-01 2.3792568357359056e+00 1.7349825001937948e+01 0 4 -13
808 3 2 -1.0400000000000000e+00 6.8415411221932607e-02 2.7993656046850619e+00 1.8204927369758497e+01 0 4 -13
954 4 1 5.2000000000000002e-01 5.5459758248362654e+00 2.3555577398739933e+00 1.9613302966844056e+01 12 8 -10
952 4 2 -1.0400000000000000e+00 5.2931008255414289e+00 3.1853628969356969e+00 1.9208656999663507e+01 12 8 -10
597 3 1 5.2000000000000002e-01 2.6410774504089272e+00 2.1470705663682699e+00 2.0238536192141371e+01 13 -7 -9
356 2 1 5.2000000000000002e-01 6.2560418325492329e-01 5.2296206015998505e+00 1.8469930067587718e+01 6 7 -7
644 3 1 5.2000000000000002e-01 2.4927878735508919e+00 3.1336296521731741e+00 1.7504248486235390e+01 -6 6 -14
1112 4 1 5.2000000000000002e-01 7.9868095171998537e+00 2.0625628157327691e+00 2.1872158842837063e+01 -7 1 -11
321 2 1 5.2000000000000002e-01 1.0930609527037680e+01 1.3902490699646479e+00 1.6694546021400225e+01 2 3 -7
473 2 1 5.2000000000000002e-01 9.5289282865852112e+00 4.2901475724957026e+00 1.9970474093839737e+01 9 4 6
343 2 2 -1.0400000000000000e+00 9.7205869656638804e+00 5.8959260486110099e-01 1.9158360594102213e+01 4 10 -5
953 4 1 5.2000000000000002e-01 6.0707686973686741e+00 3.7378049441151369e+00 1.9287867785135916e+01 12 8 -10
472 2 2 -1.0400000000000000e+00 9.4508309576601821e+00 3.9728876932762027e+00 1.9070757250838749e+01 9 4 6
1131 4 1 5.2000000000000002e-01 1.0292610294031524e+01 4.9335135402904671e+00 1.7018735563068709e+01 8 -8 -3
344 2 1 5.2000000000000002e-01 9.8135160932692465e+00 6.8322600370743591e-01 1.8210276501626478e+01 4 10 -5
848 3 1 5.2000000000000002e-01 6.6319735159964077e+00 1.4061780935217572e+00 1.7724248285006571e+01 -12 9 -18
1113 4 1 5.2000000000000002e-01 6.9490106064550750e+00 2.7697677484030643e+00 2.1026729566873520e+01 -7 1 -11
847 3 2 -1.0400000000000000e+00 7.1064637445367884e+00 6.0393058724855264e-01 1.7942174845080615e+01 -12 9 -18
1111 4 2 -1.0400000000000000e+00 7.4746449565298638e+00 1.9708914344694446e+00 2.1068704783876683e+01 -7 1 -11
474 2 1 5.2000000000000002e-01 8.5076881656186956e+00 3.9156354604437493e+00 1.8917479875127938e+01 9 4 6
345 2 1 5.2000000000000002e-01 1.0158331242787693e+01 1.3603520707126111e+00 1.9519693658461353e+01 4 10 -5
1009 4 2 -1.0400000000000000e+00 1.0589546894065693e+01 1.6608019332598205e+00 2.1963314204282518e+01 -5 -14 -1
849 3 1 5.2000000000000002e-01 6.6366255548690534e+00 2.4407080603095449e-01 1.8694544027837100e+01 -12 9 -18
998 4 1 5.2000000000000002e-01 5.5206969760580575e+00 8.6953603045786974e+00 2.1511064562477973e+01 -11 0 11
340 2 2 -1.0400000000000000e+00 2.9699108673606358e+00 1.1075192920500941e+01 1.8537073935430911e+01 5 1 -10
921 4 1 5.2000000000000002e-01 4.4082772978655020e+00 1.0602990905225131e+01 1.9475950823108011e+01 -7 -3 1
79 1 2 -1.0400000000000000e+00 9.9260536391439635e-01 8.9548023002946788e+00 1.8686729400693228e+01 -17 27 3
611 3 1 5.2000000000000002e-01 2.5922280528360981e+00 7.9460873403577308e+00 1.7035890780596894e+01 2 -9 -10
610 3 2 -1.0400000000000000e+00 3.4550130140098405e+00 8.2924966296990554e+00 1.6808113445056755e+01 2 -9 -10
206 1 1 5.2000000000000002e-01 2.4320376264845085e+00 8.8192478777203487e+00 2.1138104413265502e+01 1 5 3
207 1 1 5.2000000000000002e-01 3.8011667039336223e+00 8.1758932664283286e+00 2.1199464204369516e+01 1 5 3
205 1 2 -1.0400000000000000e+00 3.2678714039054975e+00 8.7723508648327027e+00 2.0673932743953813e+01 1 5 3
81 1 1 5.2000000000000002e-01 1.0268498613339352e+00 8.5096466647950777e+00 1.9533436415536524e+01 -17 27 3
919 4 2 -1.0400000000000000e+00 5.1176118419799810e+00 1.0830862772020561e+01 2.0076912683251066e+01 -7 -3 1
342 2 1 5.2000000000000002e-01 3.8029795422073756e+00 1.0625678105183644e+01 1.8395062434934115e+01 5 1 -10
176 1 1 5.2000000000000002e-01 2.6402256127746511e+00 6.1160783596920849e+00 2.0328169826505018e+01 8 5 3
175 1 2 -1.0400000000000000e+00 3.1924078169953116e+00 6.2146117899596449e+00 1.9552510860884574e+01 8 5 3
177 1 1 5.2000000000000002e-01 3.9279416832199678e+00 5.6212163551172605e+00 1.9704635683067387e+01 8 5 3
63 1 1 5.2000000000000002e-01 9.7573302244053484e-01 6.7286447798149114e+00 2.1200903444388395e+01 13 -5 0
341 2 1 5.2000000000000002e-01 2.3195151714261382e+00 1.0373306476552772e+01 1.8561025185586782e+01 5 1 -10
61 1 2 -1.0400000000000000e+00 3.5181654541805818e-01 6.9665913664965604e+00 2.0515083028643122e+01 13 -5 0
80 1 1 5.2000000000000002e-01 3.0336306216136499e-01 9.6111878432097928e+00 1.8788392257787663e+01 -17 27 3
355 2 2 -1.0400000000000000e+00 5.3595478802102137e-01 5.7959953395740156e+00 1.7703486291143410e+01 6 7 -7
1121 4 1 5.2000000000000002e-01 5.7555088117878883e-01 1.0343594395132067e+01 2.1643727716422291e+01 -15 1 4
398 2 1 5.2000000000000002e-01 6.9426328163825941e+00 5.9230208107587492e+00 1.6749713181842601e+01 7 -3 -5
126 1 1 5.2000000000000002e-01 9.0010791384131039e+00 9.4178232865970717e+00 1.9646605317468769e+01 7 -10 1
243 1 1 5.2000000000000002e-01 7.0575191821975816e+00 6.1166171983282238e+00 2.0637783474388449e+01 -6 6 1